
#(C) 2020 by FIZ Karlsruhe - Leibniz Institute for Information Infrastructure.  All rights reserved.
data_174286-ICSD
_database_code_ICSD 174286
_audit_creation_date 2010-08-01
_chemical_name_common 'Copper zirconium titanium oxide'
_chemical_formula_structural 'Cu Zr (Ti O5)'
_chemical_formula_sum 'Cu1 O5 Ti1 Zr1'
_exptl_crystal_density_diffrn 5.33
_diffrn_ambient_temperature 295.
_citation_title
'Synthesis and crystal structure of Cu Zr Ti O5 - A new crystal structure type'
loop_
_citation_id
_citation_journal_full
_citation_year
_citation_journal_volume
_citation_page_first
_citation_page_last
_citation_journal_id_ASTM
primary 'Journal of Solid State Chemistry' 2010 183 668 675 JSSCBI
loop_
_citation_author_citation_id
_citation_author_name
primary 'Troitzsch, U.'
primary 'Christy, A.G.'
primary 'Willis, A.C.'
primary 'Ellis, D.J.'
_cell_length_a 3.5871(3)
_cell_length_b 6.6968(4)
_cell_length_c 14.6679(9)
_cell_angle_alpha 90.
_cell_angle_beta 90.
_cell_angle_gamma 90.
_cell_volume 352.35
_cell_formula_units_Z 4
_space_group_name_H-M_alt 'P 21 21 21'
_space_group_IT_number 19
loop_
_space_group_symop_id
_space_group_symop_operation_xyz
1 '-x, y+1/2, -z+1/2'
2 'x+1/2, -y+1/2, -z'
3 '-x+1/2, -y, z+1/2'
4 'x, y, z'
loop_
_atom_type_symbol
_atom_type_oxidation_number
Cu2+ 2
Zr4+ 4
Ti4+ 4
O2- -2
loop_
_atom_site_label
_atom_site_type_symbol
_atom_site_symmetry_multiplicity
_atom_site_Wyckoff_symbol
_atom_site_fract_x
_atom_site_fract_y
_atom_site_fract_z
_atom_site_U_iso_or_equiv
_atom_site_occupancy
Cu1 Cu2+ 4 a 0.4996(2) 0.59953(12) 0.745925 0.0104 1.
Zr1 Zr4+ 4 a 0.07575(15) 0.34112(8) 0.59597(3) 0.0071 1.
Ti1 Ti4+ 4 a 0.5886(3) 0.64208(14) 0.42604(6) 0.0064 1.
O1 O2- 4 a 0.5693(11) 0.3451(6) 0.6888(2) 0.0085 1.
O2 O2- 4 a 0.1004(12) 0.6371(6) 0.6494(3) 0.0107 1.
O3 O2- 4 a 0.5777(13) 0.3840(6) 0.5160(3) 0.0086 1.
O4 O2- 4 a 0.0872(12) 0.6459(7) 0.4643(3) 0.0126 1.
O5 O2- 4 a 0.5972(13) 0.4405(6) 0.3405(3) 0.0093 1.
loop_
_atom_site_aniso_label
_atom_site_aniso_type_symbol
_atom_site_aniso_U_11
_atom_site_aniso_U_22
_atom_site_aniso_U_33
_atom_site_aniso_U_12
_atom_site_aniso_U_13
_atom_site_aniso_U_23
Cu1 Cu2+ 0.0139(4) 0.0071(3) 0.0102(3) 0.0014(2) -0.0029(3) -0.0013(2)
Zr1 Zr4+ 0.0056(2) 0.0082(2) 0.0076(2) 0.0003(2) -0.00022(19) -0.00129(19)
Ti1 Ti4+ 0.0047(4) 0.0065(4) 0.0080(4) -0.0002(4) 0.0008(3) -0.0005(3)
O1 O2- 0.0102(17) 0.0056(15) 0.0097(16) -0.0017(19) 0.0017(15) 0.0010(14)
O2 O2- 0.014(2) 0.0092(19) 0.0094(18) 0.0006(18) -0.0045(16) 0.0009(14)
O3 O2- 0.0092(6) 0.0074(17) 0.0093(17) -0.0006(17) -0.0004(16) -0.0008(13)
O4 O2- 0.0062(19) 0.017(2) 0.0151(19) 0.000(2) -0.0007(16) -0.0082(16)
O5 O2- 0.009(2) 0.0104(18) 0.0087(17) 0.0004(19) 0.0015(17) -0.0011(14)
#End of TTdata_174286-ICSD