
#(C) 2020 by FIZ Karlsruhe - Leibniz Institute for Information Infrastructure.  All rights reserved.
data_10477-ICSD
_database_code_ICSD 10477
_audit_creation_date 1980-01-01
_audit_update_record 1985-04-23
_chemical_name_common 'Copper dipotassium dihydrogen phosphatochromate'
_chemical_formula_structural 'Cu K2 H2 (P Cr O7)2'
_chemical_formula_sum 'H2 Cr2 Cu1 K2 O14 P2'
_exptl_crystal_density_diffrn 2.87
_citation_title

;
Structure cristalline d'un phosphochromate acide de cuivre potassium: Cu K2 H2
(P Cr O7)2
;
loop_
_citation_id
_citation_journal_full
_citation_year
_citation_journal_volume
_citation_page_first
_citation_page_last
_citation_journal_id_ASTM
primary 'Journal of Solid State Chemistry' 1979 30 329 334 JSSCBI
loop_
_citation_author_citation_id
_citation_author_name
primary 'Coing-Boyat, J.'
primary 'Durif, A.'
primary 'Guitel, J.C.'
_cell_length_a 9.559(5)
_cell_length_b 7.196(5)
_cell_length_c 8.983(5)
_cell_angle_alpha 90.
_cell_angle_beta 93.73(5)
_cell_angle_gamma 90.
_cell_volume 616.6
_cell_formula_units_Z 2
_space_group_name_H-M_alt 'P 1 21/c 1'
_space_group_IT_number 14
loop_
_space_group_symop_id
_space_group_symop_operation_xyz
1 'x, -y+1/2, z+1/2'
2 '-x, -y, -z'
3 '-x, y+1/2, -z+1/2'
4 'x, y, z'
loop_
_atom_type_symbol
_atom_type_oxidation_number
Cu2+ 2
K1+ 1
Cr6+ 6
P5+ 5
O2- -2
H1+ 1
loop_
_atom_site_label
_atom_site_type_symbol
_atom_site_symmetry_multiplicity
_atom_site_Wyckoff_symbol
_atom_site_fract_x
_atom_site_fract_y
_atom_site_fract_z
_atom_site_B_iso_or_equiv
_atom_site_occupancy
Cu1 Cu2+ 2 c 0 0 0.5 . 1.
K1 K1+ 4 e 0.69464(9) 0.12278(12) 0.17615(11) . 1.
Cr1 Cr6+ 4 e 0.34715(5) 0.11598(7) 0.39091(5) . 1.
P1 P5+ 4 e 0.08815(7) 0.13012(9) 0.18629(7) . 1.
O1 O2- 4 e 0.2149(2) 0.2336(3) 0.2643(2) . 1.
O2 O2- 4 e 0.4523(3) 0.0010(4) 0.2937(3) . 1.
O3 O2- 4 e 0.7373(3) 0.0274(3) 0.5073(3) . 1.
O4 O2- 4 e 0.4272(3) 0.2780(4) 0.4843(3) . 1.
O5 O2- 4 e 0.8443(2) 0.4478(3) 0.3757(3) . 1.
O6 O2- 4 e 0.9785(2) 0.0799(3) 0.2932(2) . 1.
O7 O2- 4 e 0.0244(2) 0.2400(3) 0.0550(2) . 1.
#End of TTdata_10477-ICSD