
#(C) 2020 by FIZ Karlsruhe - Leibniz Institute for Information Infrastructure.  All rights reserved.
data_1028-ICSD
_database_code_ICSD 1028
_audit_creation_date 1980-01-01
_audit_update_record 2000-07-15
_chemical_name_common 'Dicalcium dibromodioxocuprate'
_chemical_formula_structural 'Ca2 (Cu Br2 O2)'
_chemical_formula_sum 'Br2 Ca2 Cu1 O2'
_chemical_name_structure_type Sr2CuCl2O2#Na2Ti2Sb2O
_exptl_crystal_density_diffrn 4.3
_citation_title 'Zur Kenntnis von Ca2 Cu O2 Cl2 und Ca2 Cu O2 Br2'
loop_
_citation_id
_citation_journal_full
_citation_year
_citation_journal_volume
_citation_page_first
_citation_page_last
_citation_journal_id_ASTM
primary 'Zeitschrift fuer Anorganische und Allgemeine Chemie (1950) (DE)' 1977
429 88 90 ZAACAB
loop_
_citation_author_citation_id
_citation_author_name
primary 'Grande, B.'
primary 'Mueller-Buschbaum, H.'
_cell_length_a 3.875
_cell_length_b 3.875
_cell_length_c 17.26399
_cell_angle_alpha 90.
_cell_angle_beta 90.
_cell_angle_gamma 90.
_cell_volume 259.23
_cell_formula_units_Z 2
_space_group_name_H-M_alt 'I 4/m m m'
_space_group_IT_number 139
loop_
_space_group_symop_id
_space_group_symop_operation_xyz
1 'y, x, -z'
2 '-y, -x, -z'
3 '-y, x, -z'
4 'y, -x, -z'
5 '-x, y, -z'
6 'x, -y, -z'
7 'x, y, -z'
8 '-x, -y, -z'
9 '-y, -x, z'
10 'y, x, z'
11 'y, -x, z'
12 '-y, x, z'
13 'x, -y, z'
14 '-x, y, z'
15 '-x, -y, z'
16 'x, y, z'
17 'y+1/2, x+1/2, -z+1/2'
18 '-y+1/2, -x+1/2, -z+1/2'
19 '-y+1/2, x+1/2, -z+1/2'
20 'y+1/2, -x+1/2, -z+1/2'
21 '-x+1/2, y+1/2, -z+1/2'
22 'x+1/2, -y+1/2, -z+1/2'
23 'x+1/2, y+1/2, -z+1/2'
24 '-x+1/2, -y+1/2, -z+1/2'
25 '-y+1/2, -x+1/2, z+1/2'
26 'y+1/2, x+1/2, z+1/2'
27 'y+1/2, -x+1/2, z+1/2'
28 '-y+1/2, x+1/2, z+1/2'
29 'x+1/2, -y+1/2, z+1/2'
30 '-x+1/2, y+1/2, z+1/2'
31 '-x+1/2, -y+1/2, z+1/2'
32 'x+1/2, y+1/2, z+1/2'
loop_
_atom_type_symbol
_atom_type_oxidation_number
Cu2+ 2
O2- -2
Ca2+ 2
Br1- -1
loop_
_atom_site_label
_atom_site_type_symbol
_atom_site_symmetry_multiplicity
_atom_site_Wyckoff_symbol
_atom_site_fract_x
_atom_site_fract_y
_atom_site_fract_z
_atom_site_B_iso_or_equiv
_atom_site_occupancy
Cu1 Cu2+ 2 a 0 0 0 . 1.
O1 O2- 4 c 0 0.5 0 . 1.
Ca1 Ca2+ 4 e 0 0 0.4097 . 1.
Br1 Br1- 4 e 0 0 0.1707 . 1.
#End of TTdata_1028-ICSD