
#(C) 2020 by FIZ Karlsruhe - Leibniz Institute for Information Infrastructure.  All rights reserved.
data_51713-ICSD
_database_code_ICSD 51713
_audit_creation_date 2003-10-01
_audit_update_record 2012-08-01
_chemical_name_common 'Tristrontium tricopper tetrakis(phosphate(V)) - I'
_chemical_formula_structural 'Sr3 Cu3 (P O4)4'
_chemical_formula_sum 'Cu3 O16 P4 Sr3'
_exptl_crystal_density_diffrn 4.05
_citation_title

;
Synthesis and x-ray powder diffraction study of new phosphates in the Cu3 (P
O4)2-Sr3 (P O4)2 system: Sr1.9 Cu4.1 (P O4)4, Sr3 Cu3 (PO4)4, Sr2 Cu (P O4)2,
and Sr9.1 Cu1.4 (P O4)7
;
loop_
_citation_id
_citation_journal_full
_citation_year
_citation_journal_volume
_citation_page_first
_citation_page_last
_citation_journal_id_ASTM
primary 'Journal of Solid State Chemistry' 2002 163 121 131 JSSCBI
loop_
_citation_author_citation_id
_citation_author_name
primary 'Belik, A.A.'
primary 'Malakho, A.P.'
primary 'Lazoryak, B.I.'
primary 'Khasanov, S.S.'
_cell_length_a 9.2010(1)
_cell_length_b 4.94104(4)
_cell_length_c 17.8998(3)
_cell_angle_alpha 90
_cell_angle_beta 122.8952(9)
_cell_angle_gamma 90
_cell_volume 683.29
_cell_formula_units_Z 2
_space_group_name_H-M_alt 'P 1 21/c 1'
_space_group_IT_number 14
loop_
_space_group_symop_id
_space_group_symop_operation_xyz
1 'x, -y+1/2, z+1/2'
2 '-x, -y, -z'
3 '-x, y+1/2, -z+1/2'
4 'x, y, z'
loop_
_atom_type_symbol
_atom_type_oxidation_number
Cu2+ 2
Sr2+ 2
P5+ 5
O2- -2
loop_
_atom_site_label
_atom_site_type_symbol
_atom_site_symmetry_multiplicity
_atom_site_Wyckoff_symbol
_atom_site_fract_x
_atom_site_fract_y
_atom_site_fract_z
_atom_site_B_iso_or_equiv
_atom_site_occupancy
Cu1 Cu2+ 2 a 0. 0. 0. 0.55(3) 1.
Cu2 Cu2+ 4 e 0.94707(14) 0.4682(3) 0.12149(7) 0.64(3) 1.
Sr1 Sr2+ 2 d 0.5 0. 0.5 0.94(3) 1.
Sr2 Sr2+ 4 e 0.71968(9) 0.4649(2) 0.26364(5) 0.43(2) 1.
P1 P5+ 4 e 0.2346(3) -.0105(5) 0.58723(13) 0.39(4) 1.
P2 P5+ 4 e 0.2061(3) 0.0228(5) 0.83698(13) 0.53(5) 1.
O1 O2- 4 e 0.4110(7) -.0881(11) 0.6718(3) 0.98(12) 1.
O2 O2- 4 e 0.2368(6) 0.5570(11) 0.0032(3) 0.5 1.
O3 O2- 4 e 0.1836(6) 0.2879(10) 0.5932(3) 0.5 1.
O4 O2- 4 e 0.0896(6) -.1981(9) 0.5827(3) 0.10(11) 1.
O5 O2- 4 e 0.3759(6) -.1355(9) 0.8924(3) 0.53(11) 1.
O6 O2- 4 e 0.0614(6) -.0773(10) 0.8519(3) 0.54(11) 1.
O7 O2- 4 e 0.2371(6) 0.1640(9) 0.3568(3) 0.10(11) 1.
O8 O2- 4 e 0.1473(5) -.0178(12) 0.7377(3) 0.11(10) 1.
#End of TTdata_51713-ICSD