
#(C) 2022 by FIZ Karlsruhe - Leibniz Institute for Information Infrastructure.  All rights reserved.
data_157107-ICSD
_database_code_ICSD 157107
_audit_creation_date 2008-02-01
_chemical_name_common 'Dicopper diphosphate(V) - alpha'
_chemical_formula_structural 'Cu2 (P2 O7)'
_chemical_formula_sum 'Cu2 O7 P2'
_chemical_name_structure_type Cu2P2O7
_exptl_crystal_density_diffrn 4.12
_diffrn_ambient_temperature 293.
_citation_title 'Structure and phase transitions in Cu2 P2 O7'
loop_
_citation_id
_citation_journal_full
_citation_year
_citation_journal_volume
_citation_page_first
_citation_page_last
_citation_journal_id_ASTM
primary 'Phase Transitions' 2006 79 535 544 PHTRDP
loop_
_citation_author_citation_id
_citation_author_name
primary 'Pogorzelec-Glaser, K.'
primary 'Pietraszko, A.'
primary 'Hilczer, B.'
primary 'Polomska, M.'
_cell_length_a 6.9070(14)
_cell_length_b 8.1300(16)
_cell_length_c 9.1810(9)
_cell_angle_alpha 90.
_cell_angle_beta 109.61(3)
_cell_angle_gamma 90.
_cell_volume 485.65
_cell_formula_units_Z 4
_space_group_name_H-M_alt 'C 1 2/c 1'
_space_group_IT_number 15
loop_
_space_group_symop_id
_space_group_symop_operation_xyz
1 'x, -y, z+1/2'
2 '-x, -y, -z'
3 '-x, y, -z+1/2'
4 'x, y, z'
5 'x+1/2, -y+1/2, z+1/2'
6 '-x+1/2, -y+1/2, -z'
7 '-x+1/2, y+1/2, -z+1/2'
8 'x+1/2, y+1/2, z'
loop_
_atom_type_symbol
_atom_type_oxidation_number
Cu2+ 2
P5+ 5
O2- -2
loop_
_atom_site_label
_atom_site_type_symbol
_atom_site_symmetry_multiplicity
_atom_site_Wyckoff_symbol
_atom_site_fract_x
_atom_site_fract_y
_atom_site_fract_z
_atom_site_U_iso_or_equiv
_atom_site_occupancy
Cu1 Cu2+ 8 f -0.0177(1) 0.3128(1) 0.5069(1) 0.008(1) 1.
P1 P5+ 8 f 0.1977(1) 0.0074(1) 0.2057(1) 0.005(1) 1.
O1 O2- 4 e 0 0.0462(4) 0.25 0.024(1) 1.
O2 O2- 8 f 0.3757(2) 0.0000(1) 0.3613(1) 0.006(1) 1.
O3 O2- 8 f 0.2204(2) 0.1561(1) 0.1127(1) 0.008(1) 1.
O4 O2- 8 f 0.1788(2) -0.1508(1) 0.1179(1) 0.014(1) 1.
#End of TTdata_157107-ICSD