
#(C) 2022 by FIZ Karlsruhe - Leibniz Institute for Information Infrastructure.  All rights reserved.
data_72813-ICSD
_database_code_ICSD 72813
_audit_creation_date 1994-01-19
_audit_update_record 2007-08-01
_chemical_name_common 'Dibarium copper tungstate'
_chemical_formula_structural 'Ba2 Cu (W O6)'
_chemical_formula_sum 'Ba2 Cu1 O6 W1'
_chemical_name_structure_type Perovskite#Sr2NiWO6
_exptl_crystal_density_diffrn 7.69
_citation_title 'Structure of the M2 Cu W O6 system, with M= Ba or Sr'
loop_
_citation_id
_citation_journal_full
_citation_year
_citation_journal_volume
_citation_page_first
_citation_page_last
_citation_journal_id_ASTM
primary 'Powder Diffraction' 1992 7 228 230 PODIE2
loop_
_citation_author_citation_id
_citation_author_name
primary 'Bokhimi, X.'
_cell_length_a 5.56392(8)
_cell_length_b 5.56392(8)
_cell_length_c 8.6274(1)
_cell_angle_alpha 90.
_cell_angle_beta 90.
_cell_angle_gamma 90.
_cell_volume 267.08
_cell_formula_units_Z 2
_space_group_name_H-M_alt 'I 4/m'
_space_group_IT_number 87
loop_
_space_group_symop_id
_space_group_symop_operation_xyz
1 '-y, x, -z'
2 'y, -x, -z'
3 'x, y, -z'
4 '-x, -y, -z'
5 'y, -x, z'
6 '-y, x, z'
7 '-x, -y, z'
8 'x, y, z'
9 '-y+1/2, x+1/2, -z+1/2'
10 'y+1/2, -x+1/2, -z+1/2'
11 'x+1/2, y+1/2, -z+1/2'
12 '-x+1/2, -y+1/2, -z+1/2'
13 'y+1/2, -x+1/2, z+1/2'
14 '-y+1/2, x+1/2, z+1/2'
15 '-x+1/2, -y+1/2, z+1/2'
16 'x+1/2, y+1/2, z+1/2'
loop_
_atom_type_symbol
_atom_type_oxidation_number
W6+ 6
Cu2+ 2
Ba2+ 2
O2- -2
loop_
_atom_site_label
_atom_site_type_symbol
_atom_site_symmetry_multiplicity
_atom_site_Wyckoff_symbol
_atom_site_fract_x
_atom_site_fract_y
_atom_site_fract_z
_atom_site_B_iso_or_equiv
_atom_site_occupancy
W1 W6+ 2 a 0 0 0 -2.07(11) 1.
Cu1 Cu2+ 2 b 0 0 0.5 -1.17(29) 1.
Ba1 Ba2+ 4 d 0 0.5 0.25 -2.77(12) 1.
O1 O2- 4 e 0 0 0.2293(17) -4.65(41) 1.
O2 O2- 8 h 0.2902(25) 0.1965(33) 0 -4.19(48) 1.
#End of TTdata_72813-ICSD