
#(C) 2022 by FIZ Karlsruhe - Leibniz Institute for Information Infrastructure.  All rights reserved.
data_88703-ICSD
_database_code_ICSD 88703
_audit_creation_date 2001-07-16
_chemical_name_common 'Dibarium copper tellurate'
_chemical_formula_structural 'Ba2 Cu (Te O6)'
_chemical_formula_sum 'Ba2 Cu1 O6 Te1'
_chemical_name_structure_type Perovskite#Sr2NiWO6
_exptl_crystal_density_diffrn 6.91
_citation_title

;
Crystal structure and magnetic properties of B-site ordered perovskite-type
oxides A2 Cu B' O6 (A = Ba, Sr; B'= W, Te)
;
loop_
_citation_id
_citation_journal_full
_citation_year
_citation_journal_volume
_citation_page_first
_citation_page_last
_citation_journal_id_ASTM
primary 'Journal of Solid State Chemistry' 1999 147 291 295 JSSCBI
loop_
_citation_author_citation_id
_citation_author_name
primary 'Iwanaga, D.'
primary 'Inaguma, Y.'
primary 'Itoh, M.'
_cell_length_a 5.5903(1)
_cell_length_b 5.5903(1)
_cell_length_c 8.6426(3)
_cell_angle_alpha 90.
_cell_angle_beta 90.
_cell_angle_gamma 90.
_cell_volume 270.09
_cell_formula_units_Z 2
_space_group_name_H-M_alt 'I 4/m'
_space_group_IT_number 87
loop_
_space_group_symop_id
_space_group_symop_operation_xyz
1 '-y, x, -z'
2 'y, -x, -z'
3 'x, y, -z'
4 '-x, -y, -z'
5 'y, -x, z'
6 '-y, x, z'
7 '-x, -y, z'
8 'x, y, z'
9 '-y+1/2, x+1/2, -z+1/2'
10 'y+1/2, -x+1/2, -z+1/2'
11 'x+1/2, y+1/2, -z+1/2'
12 '-x+1/2, -y+1/2, -z+1/2'
13 'y+1/2, -x+1/2, z+1/2'
14 '-y+1/2, x+1/2, z+1/2'
15 '-x+1/2, -y+1/2, z+1/2'
16 'x+1/2, y+1/2, z+1/2'
loop_
_atom_type_symbol
_atom_type_oxidation_number
Ba2+ 2
Cu2+ 2
Te6+ 6
O2- -2
loop_
_atom_site_label
_atom_site_type_symbol
_atom_site_symmetry_multiplicity
_atom_site_Wyckoff_symbol
_atom_site_fract_x
_atom_site_fract_y
_atom_site_fract_z
_atom_site_B_iso_or_equiv
_atom_site_occupancy
Ba1 Ba2+ 4 d 0 0.5 0.25 . 1.
Cu1 Cu2+ 2 a 0 0 0 . 1.
Te1 Te6+ 2 b 0 0 0.5 . 1.
O1 O2- 4 e 0 0 0.281 . 1.
O2 O2- 8 h 0.263 0.244 0 . 1.
#End of TTdata_88703-ICSD