
#(C) 2022 by FIZ Karlsruhe - Leibniz Institute for Information Infrastructure.  All rights reserved.
data_2542-ICSD
_database_code_ICSD 2542
_audit_creation_date 1980-01-01
_audit_update_record 1999-01-19
_chemical_name_common 'Copper ditellurate(IV)'
_chemical_formula_structural 'Cu (Te2 O5)'
_chemical_formula_sum 'Cu1 O5 Te2'
_chemical_name_structure_type CuTe2O5
_chemical_name_mineral Rajite
_exptl_crystal_density_diffrn 5.76
_citation_title 'The crystal structure of Cu Te O5'
loop_
_citation_id
_citation_journal_full
_citation_year
_citation_journal_volume
_citation_page_first
_citation_page_last
_citation_journal_id_ASTM
primary

;
Acta Crystallographica, Section B: Structural Crystallography and Crystal
Chemistry
; 1973 29 963 970 ACBCAR
loop_
_citation_author_citation_id
_citation_author_name
primary 'Hanke, K.'
primary 'Kupcik, V.'
primary 'Lindqvist, O.'
_cell_length_a 6.871(2)
_cell_length_b 9.322(2)
_cell_length_c 7.602(2)
_cell_angle_alpha 90.
_cell_angle_beta 109.08(1)
_cell_angle_gamma 90.
_cell_volume 460.17
_cell_formula_units_Z 4
_space_group_name_H-M_alt 'P 1 21/c 1'
_space_group_IT_number 14
loop_
_space_group_symop_id
_space_group_symop_operation_xyz
1 'x, -y+1/2, z+1/2'
2 '-x, -y, -z'
3 '-x, y+1/2, -z+1/2'
4 'x, y, z'
loop_
_atom_type_symbol
_atom_type_oxidation_number
Cu2+ 2
Te4+ 4
O2- -2
loop_
_atom_site_label
_atom_site_type_symbol
_atom_site_symmetry_multiplicity
_atom_site_Wyckoff_symbol
_atom_site_fract_x
_atom_site_fract_y
_atom_site_fract_z
_atom_site_B_iso_or_equiv
_atom_site_occupancy
Cu1 Cu2+ 4 e 0.34117(8) 0.48715(5) 0.29408(7) . 1.
Te1 Te4+ 4 e 0.13182(4) 0.19969(3) 0.08684(3) . 1.
Te2 Te4+ 4 e 0.65120(4) 0.32349(3) 0.05685(3) . 1.
O1 O2- 4 e 0.5015(5) 0.1056(2) 0.3232(4) . 1.
O2 O2- 4 e 0.8956(5) 0.1818(3) 0.4649(4) . 1.
O3 O2- 4 e 0.3185(5) 0.3483(3) 0.0931(4) . 1.
O4 O2- 4 e 0.1327(5) 0.3722(4) 0.3560(5) . 1.
O5 O2- 4 e 0.6150(5) 0.3726(3) 0.5067(4) . 1.
loop_
_atom_site_aniso_label
_atom_site_aniso_type_symbol
_atom_site_aniso_U_11
_atom_site_aniso_U_22
_atom_site_aniso_U_33
_atom_site_aniso_U_12
_atom_site_aniso_U_13
_atom_site_aniso_U_23
Cu1 Cu2+ 0.0106(2) 0.0063(2) 0.0088(2) -.0016(1) 0.0052(1) -.0009(1)
Te1 Te4+ 0.00799(8) 0.00737(8) 0.00833(8) -.00093(6) 0.00415(7) -.00073(6)
Te2 Te4+ 0.00892(8) 0.00670(8) 0.00663(8) 0.00025(6) 0.00256(6) -.00005(6)
O1 O2- 0.0099(10) 0.0106(11) 0.0106(11) 0.0010(8) 0.0025(9) -.0033(9)
O2 O2- 0.0085(9) 0.0155(11) 0.0111(11) -.0025(9) 0.0053(9) -.0026(9)
O3 O2- 0.0113(11) 0.0108(11) 0.0111(11) -.0044(8) 0.0060(9) -.0034(9)
O4 O2- 0.0146(12) 0.0127(12) 0.0116(13) -.0030(9) 0.0068(10) 0.0037(9)
O5 O2- 0.0191(13) 0.0062(10) 0.0112(11) 0.0014(9) 0.0057(10) -.0017(8)
#End of TTdata_2542-ICSD