
#(C) 2023 by FIZ Karlsruhe - Leibniz Institute for Information Infrastructure.  All rights reserved.
data_75730-ICSD
_database_code_ICSD 75730
_audit_creation_date 1996-04-22
_chemical_name_common 'Mercury dibarium dicalcium tricopper oxide'
_chemical_formula_structural 'Hg Ba2 Ca2 Cu3 O8'
_chemical_formula_sum 'Ba2 Ca2 Cu3 Hg1 O8'
_chemical_name_structure_type Ba2Ca2Cu3HgO8.44
_exptl_crystal_density_diffrn 6.22
_citation_title

;
Pressure-induced structural changes in superconducting Hg Ba2 Ca(n-1) Cu(n)
O(2n+2+d) (n=1,2,3) componunds
;
loop_
_citation_id
_citation_journal_full
_citation_year
_citation_journal_volume
_citation_page_first
_citation_page_last
_citation_journal_id_ASTM
primary
'Physica C: Superconductivity and Ist Application (Amsterdam, Netherlands)' 1994 221 1 10 PHYCE6
loop_
_citation_author_citation_id
_citation_author_name
primary 'Hunter, B.A.'
primary 'Jorgensen, J.D.'
primary 'Wagner, J.L.'
primary 'Radaelli, P.G.'
primary 'Hinks, D.G.'
primary 'Shaked, H.'
primary 'Hitterman, R.L.'
primary 'von Dreele, R.B.'
_cell_length_a 3.8460(1)
_cell_length_b 3.8460(1)
_cell_length_c 15.7730(5)
_cell_angle_alpha 90.
_cell_angle_beta 90.
_cell_angle_gamma 90.
_cell_volume 233.31
_cell_formula_units_Z 1
_space_group_name_H-M_alt 'P 4/m m m'
_space_group_IT_number 123
loop_
_space_group_symop_id
_space_group_symop_operation_xyz
1 'y, x, -z'
2 '-y, -x, -z'
3 '-y, x, -z'
4 'y, -x, -z'
5 '-x, y, -z'
6 'x, -y, -z'
7 'x, y, -z'
8 '-x, -y, -z'
9 '-y, -x, z'
10 'y, x, z'
11 'y, -x, z'
12 '-y, x, z'
13 'x, -y, z'
14 '-x, y, z'
15 '-x, -y, z'
16 'x, y, z'
loop_
_atom_type_symbol
_atom_type_oxidation_number
Hg2+ 2
Ba2+ 2
Ca2+ 2
Cu2+ 2
O2- -2
loop_
_atom_site_label
_atom_site_type_symbol
_atom_site_symmetry_multiplicity
_atom_site_Wyckoff_symbol
_atom_site_fract_x
_atom_site_fract_y
_atom_site_fract_z
_atom_site_B_iso_or_equiv
_atom_site_occupancy
Hg1 Hg2+ 1 a 0 0 0 . 1.
Ba1 Ba2+ 2 h 0.5 0.5 0.1735(3) . 1.
Ca1 Ca2+ 2 h 0.5 0.5 0.3973(4) . 1.
Cu1 Cu2+ 1 b 0 0 0.5 . 1.
Cu2 Cu2+ 2 g 0 0 0.2988(3) . 1.
O1 O2- 4 i 0.5 0 0.3009(3) . 1.
O2 O2- 2 g 0 0 0.1246(3) . 1.
O3 O2- 2 e 0 0.5 0.5 . 1.
#End of TTdata_75730-ICSD