
data_80576-ICSD
_database_code_ICSD 80576
_audit_creation_date 1997-05-13
_chemical_name_systematic 'Copper diantimony(V) oxide'
_chemical_formula_structural 'Cu Sb2 O6'
_chemical_formula_sum 'Cu1 O6 Sb2'
_chemical_name_structure_type Na2SnF6
_exptl_crystal_density_diffrn 6.7
_cell_measurement_temperature 298.
_cell_length_a 4.6349(1)
_cell_length_b 4.6370(1)
_cell_length_c 9.2931(10)
_cell_angle_alpha 90.
_cell_angle_beta 91.124(2)
_cell_angle_gamma 90.
_cell_volume 199.69
_cell_formula_units_Z 2
_symmetry_space_group_name_H-M 'P 1 21/n 1'
_symmetry_Int_Tables_number 14
_refine_ls_R_factor_all 0.013
loop_
_symmetry_equiv_pos_site_id
_symmetry_equiv_pos_as_xyz
1 '-x+1/2, y+1/2, -z+1/2'
2 '-x, -y, -z'
3 'x+1/2, -y+1/2, z+1/2'
4 'x, y, z'
loop_
_atom_type_symbol
Cu2+
Sb5+
O2-
loop_
_atom_site_label
_atom_site_type_symbol
_atom_site_symmetry_multiplicity
_atom_site_Wyckoff_symbol
_atom_site_fract_x
_atom_site_fract_y
_atom_site_fract_z
_atom_site_B_iso_or_equiv
_atom_site_occupancy
_atom_site_attached_hydrogens
Cu1 Cu2+ 2 a 0 0 0 0.21(6) 1. 0
Sb1 Sb5+ 4 e 0.0011(9) 0.008(1) 0.3338(6) 0.16(4) 1. 0
O1 O2- 4 e 0.3130(9) 0.2983(8) 0.0017(4) 0.13(5) 1. 0
O2 O2- 4 e 0.2991(8) 0.3176(7) 0.3291(4) 0.36(6) 1. 0
O3 O2- 4 e 0.6988(8) 0.7085(9) 0.3248(4) 0.63(7) 1. 0
