
#(C) 2022 by FIZ Karlsruhe - Leibniz Institute for Information Infrastructure.  All rights reserved.
data_78288-ICSD
_database_code_ICSD 78288
_audit_creation_date 1996-04-22
_audit_update_record 2003-04-01
_chemical_name_common 'Dilanthanum copper oxide'
_chemical_formula_structural 'La2 Cu O4'
_chemical_formula_sum 'Cu1 La2 O4'
_chemical_name_structure_type La2CuO4
_exptl_crystal_density_diffrn 7.12
_diffrn_ambient_temperature 60.
_diffrn_ambient_pressure 100000.
_citation_title
'Structural effects of hydrostatic pressure in orthorhombic La2-x Srx Cu O4'
loop_
_citation_id
_citation_journal_full
_citation_year
_citation_journal_volume
_citation_page_first
_citation_page_last
_citation_journal_id_ASTM
primary 'Physical Review B: Condensed Matter and Materials Physics' 1994 50 3221
3229 PRBMDO
loop_
_citation_author_citation_id
_citation_author_name
primary 'Takahashi, H.'
primary 'Shaked, H.'
primary 'Hunter, B.A.'
primary 'Radaelli, P.G.'
primary 'Hitterman, R.L.'
primary 'Hinks, D.G.'
primary 'Jorgensen, J.D.'
_cell_length_a 5.3341(1)
_cell_length_b 5.4137(1)
_cell_length_c 13.1040(2)
_cell_angle_alpha 90.
_cell_angle_beta 90.
_cell_angle_gamma 90.
_cell_volume 378.41
_cell_formula_units_Z 4
_space_group_name_H-M_alt 'B m a b'
_space_group_IT_number 64
loop_
_space_group_symop_id
_space_group_symop_operation_xyz
1 '-x, y+1/2, -z+1/2'
2 '-x, -y+1/2, z+1/2'
3 '-x, y, z'
4 '-x, -y, -z'
5 'x, -y+1/2, z+1/2'
6 'x, y+1/2, -z+1/2'
7 'x, -y, -z'
8 'x, y, z'
9 '-x+1/2, y+1/2, -z'
10 '-x+1/2, -y+1/2, z'
11 '-x+1/2, y, z+1/2'
12 '-x+1/2, -y, -z+1/2'
13 'x+1/2, -y+1/2, z'
14 'x+1/2, y+1/2, -z'
15 'x+1/2, -y, -z+1/2'
16 'x+1/2, y, z+1/2'
loop_
_atom_type_symbol
_atom_type_oxidation_number
La3+ 3
Cu2+ 2
O2- -2
loop_
_atom_site_label
_atom_site_type_symbol
_atom_site_symmetry_multiplicity
_atom_site_Wyckoff_symbol
_atom_site_fract_x
_atom_site_fract_y
_atom_site_fract_z
_atom_site_B_iso_or_equiv
_atom_site_occupancy
La1 La3+ 8 f 0 0.0080(3) 0.3618(1) 0.09(3) 1.
Cu1 Cu2+ 4 a 0 0 0 0.19(3) 1.
O1 O2- 8 e 0.25 0.25 0.0083(2) 0.28(4) 1.
O2 O2- 8 f 0 -.0402(3) 0.1834(1) 0.35(3) 1.
#End of TTdata_78288-ICSD