
#(C) 2022 by FIZ Karlsruhe - Leibniz Institute for Information Infrastructure.  All rights reserved.
data_59618-ICSD
_database_code_ICSD 59618
_audit_creation_date 2005-04-01
_audit_update_record 2012-08-01
_chemical_name_common 'Dilithium copper zirconium oxide - gamma'
_chemical_formula_structural 'Li2 Cu Zr O4'
_chemical_formula_sum 'Cu1 Li2 O4 Zr1'
_exptl_crystal_density_diffrn 4.76
_citation_title 'Synthesis and crystal structure of Li2 Cu Zr O4 polymorphs'
loop_
_citation_id
_citation_journal_full
_citation_year
_citation_journal_volume
_citation_page_first
_citation_page_last
_citation_journal_id_ASTM
primary 'Journal of Solid State Chemistry' 2002 166 311 319 JSSCBI
loop_
_citation_author_citation_id
_citation_author_name
primary 'Dussarrat, C.'
primary 'Mather, G.C.'
primary 'Caignaert, V.'
primary 'Domenges, B.'
primary 'Fletcher, J.G.'
primary 'West, A.R.'
_cell_length_a 9.385(1)
_cell_length_b 5.895(1)
_cell_length_c 5.863(1)
_cell_angle_alpha 90.
_cell_angle_beta 90.
_cell_angle_gamma 90.
_cell_volume 324.37
_cell_formula_units_Z 4
_space_group_name_H-M_alt 'C c c m'
_space_group_IT_number 66
loop_
_space_group_symop_id
_space_group_symop_operation_xyz
1 '-x, y, z+1/2'
2 'x, -y, z+1/2'
3 'x, y, -z'
4 '-x, -y, -z'
5 'x, -y, -z+1/2'
6 '-x, y, -z+1/2'
7 '-x, -y, z'
8 'x, y, z'
9 '-x+1/2, y+1/2, z+1/2'
10 'x+1/2, -y+1/2, z+1/2'
11 'x+1/2, y+1/2, -z'
12 '-x+1/2, -y+1/2, -z'
13 'x+1/2, -y+1/2, -z+1/2'
14 '-x+1/2, y+1/2, -z+1/2'
15 '-x+1/2, -y+1/2, z'
16 'x+1/2, y+1/2, z'
loop_
_atom_type_symbol
_atom_type_oxidation_number
Li1+ 1
Cu2+ 2
Li1+ 1
Zr4+ 4
O2- -2
loop_
_atom_site_label
_atom_site_type_symbol
_atom_site_symmetry_multiplicity
_atom_site_Wyckoff_symbol
_atom_site_fract_x
_atom_site_fract_y
_atom_site_fract_z
_atom_site_B_iso_or_equiv
_atom_site_occupancy
Li1 Li1+ 8 l .210(4) .742(10) 0 1.7(3) .5
Li2 Li1+ 4 b 0 .5 .25 .5(3) .97(1)
Cu1 Cu2+ 4 b 0 .5 .25 .5(3) .03(1)
Cu2 Cu2+ 4 a 0 0 .25 .58(6) .95(1)
Li3 Li1+ 4 a 0 0 .25 .58(6) .05(1)
Zr1 Zr4+ 4 e .25 .25 0 .28(3) 1.
O1 O2- 8 l -.0246(7) .228(1) .5 .43(6) 1.
O2 O2- 8 g .2662(7) 0 .25 .55(6) 1.
#End of TTdata_59618-ICSD