
#(C) 2022 by FIZ Karlsruhe - Leibniz Institute for Information Infrastructure.  All rights reserved.
data_258693-ICSD
_database_code_ICSD 258693
_audit_creation_date 2018-02-01
_chemical_name_common 'Strontium copper(II) tellurate'
_chemical_formula_structural 'Sr2 Cu Te O6'
_chemical_formula_sum 'Cu1 O6 Sr2 Te1'
_chemical_name_structure_type Perovskite#Sr2NiWO6
_exptl_crystal_density_diffrn 6.18
_diffrn_ambient_temperature 1.5
_citation_title

;
Magnetic structure of the S=1/2 quasi-two-dimensional square-lattice
Heisenberg antiferromagnet Sr2CuTeO6
;
loop_
_citation_id
_citation_journal_full
_citation_year
_citation_journal_volume
_citation_page_first
_citation_page_last
_citation_journal_id_ASTM
primary 'Physical Review B' 2016 93 1 6 PRBHB7
loop_
_citation_author_citation_id
_citation_author_name
primary 'Koga, Tomoyuki'
primary 'Kurita, Nobuyuki'
primary 'Avdeev, Maxim'
primary 'Danilkin, Sergey'
primary 'Sato, Taku J.'
primary 'Tanaka, Hidekazu'
_cell_length_a 5.4184(1)
_cell_length_b 5.4184(1)
_cell_length_c 8.4521(2)
_cell_angle_alpha 90.
_cell_angle_beta 90.
_cell_angle_gamma 90.
_cell_volume 248.15
_cell_formula_units_Z 2
_space_group_name_H-M_alt 'I 4/m'
_space_group_IT_number 87
loop_
_space_group_symop_id
_space_group_symop_operation_xyz
1 '-y, x, -z'
2 'y, -x, -z'
3 'x, y, -z'
4 '-x, -y, -z'
5 'y, -x, z'
6 '-y, x, z'
7 '-x, -y, z'
8 'x, y, z'
9 '-y+1/2, x+1/2, -z+1/2'
10 'y+1/2, -x+1/2, -z+1/2'
11 'x+1/2, y+1/2, -z+1/2'
12 '-x+1/2, -y+1/2, -z+1/2'
13 'y+1/2, -x+1/2, z+1/2'
14 '-y+1/2, x+1/2, z+1/2'
15 '-x+1/2, -y+1/2, z+1/2'
16 'x+1/2, y+1/2, z+1/2'
loop_
_atom_type_symbol
_atom_type_oxidation_number
Sr2+ 2
Cu2+ 2
Te6+ 6
O2- -2
loop_
_atom_site_label
_atom_site_type_symbol
_atom_site_symmetry_multiplicity
_atom_site_Wyckoff_symbol
_atom_site_fract_x
_atom_site_fract_y
_atom_site_fract_z
_atom_site_B_iso_or_equiv
_atom_site_occupancy
Sr1 Sr2+ 4 d 0 0.5 0.25 0.07(6) 1.
Cu1 Cu2+ 2 a 0 0 0 0.05(7) 1.
Te1 Te6+ 2 b 0 0 0.5 0.03(10) 1.
O1 O2- 8 h 0.3026(4) 0.2073(4) 0 0.14(5) 1.
O2 O2- 4 e 0 0 0.2750(2) 0.24(7) 1.
#End of TTdata_258693-ICSD