
#(C) 2022 by FIZ Karlsruhe - Leibniz Institute for Information Infrastructure.  All rights reserved.
data_99303-ICSD
_database_code_ICSD 99303
_audit_creation_date 2005-04-01
_audit_update_record 2006-04-01
_chemical_name_common 'Distrontium cuprotungstate(VI)'
_chemical_formula_structural 'Sr2 (Cu W O6)'
_chemical_formula_sum 'Cu1 O6 Sr2 W1'
_chemical_name_structure_type Perovskite#Sr2NiWO6
_exptl_crystal_density_diffrn 6.99
_citation_title

;
Second-order structural phase transition in Sr2 Cu W O6 double-perovskite
oxide
;
loop_
_citation_id
_citation_journal_full
_citation_year
_citation_journal_volume
_citation_page_first
_citation_page_last
_citation_journal_id_ASTM
primary 'Journal of Physics: Condensed Matter' 2003 15 6749 6757 JCOMEL
loop_
_citation_author_citation_id
_citation_author_name
primary 'Gateshki, M.'
primary 'Igartua, J.M.'
_cell_length_a 5.4169(5)
_cell_length_b 5.4169(5)
_cell_length_c 8.3976(8)
_cell_angle_alpha 90
_cell_angle_beta 90
_cell_angle_gamma 90
_cell_volume 246.41
_cell_formula_units_Z 2
_space_group_name_H-M_alt 'I 4/m'
_space_group_IT_number 87
loop_
_space_group_symop_id
_space_group_symop_operation_xyz
1 '-y, x, -z'
2 'y, -x, -z'
3 'x, y, -z'
4 '-x, -y, -z'
5 'y, -x, z'
6 '-y, x, z'
7 '-x, -y, z'
8 'x, y, z'
9 '-y+1/2, x+1/2, -z+1/2'
10 'y+1/2, -x+1/2, -z+1/2'
11 'x+1/2, y+1/2, -z+1/2'
12 '-x+1/2, -y+1/2, -z+1/2'
13 'y+1/2, -x+1/2, z+1/2'
14 '-y+1/2, x+1/2, z+1/2'
15 '-x+1/2, -y+1/2, z+1/2'
16 'x+1/2, y+1/2, z+1/2'
loop_
_atom_type_symbol
_atom_type_oxidation_number
W6+ 6
Cu2+ 2
Sr2+ 2
O2- -2
loop_
_atom_site_label
_atom_site_type_symbol
_atom_site_symmetry_multiplicity
_atom_site_Wyckoff_symbol
_atom_site_fract_x
_atom_site_fract_y
_atom_site_fract_z
_atom_site_B_iso_or_equiv
_atom_site_occupancy
W1 W6+ 2 a 0 0 0 0.16(7) 1.
Cu1 Cu2+ 2 b 0 0 0.5 0.43(6) 1.
Sr1 Sr2+ 4 d 0 0.5 0.25 0.53(3) 1.
O1 O2- 4 e 0 0 0.2261(3) 0.69(4) 1.
O2 O2- 8 h 0.2070(5) 0.2872(5) 0 0.50(2) 1.
#End of TTdata_99303-ICSD