
#(C) 2022 by FIZ Karlsruhe - Leibniz Institute for Information Infrastructure.  All rights reserved.
data_416902-ICSD
_database_code_ICSD 416902
_audit_creation_date 2007-04-01
_chemical_name_common 'Strontium dicopper trioxide'
_chemical_formula_structural 'Sr Cu2 O3'
_chemical_formula_sum 'Cu2 O3 Sr1'
_chemical_name_structure_type SrCu2O3
_exptl_crystal_density_diffrn 5.42
_diffrn_ambient_temperature 290.
_citation_title

;
Single crystal X-ray structure analysis of the spin ladder compounds Sr Cu2 O3
and Sr2 Cu3 O5 between 300 K and 100 K
;
loop_
_citation_id
_citation_journal_full
_citation_year
_citation_journal_volume
_citation_page_first
_citation_page_last
_citation_journal_id_ASTM
primary 'Zeitschrift fuer Kristallographie' 2006 221 782 787 ZEKRDZ
loop_
_citation_author_citation_id
_citation_author_name
primary 'Sparta, K.'
primary 'Loeffert, A.'
primary 'Gross, C.'
primary 'Assmus, W.'
primary 'Roth, G.'
_cell_length_a 3.9484(17)
_cell_length_b 11.626(4)
_cell_length_c 3.5089(12)
_cell_angle_alpha 90
_cell_angle_beta 90
_cell_angle_gamma 90
_cell_volume 161.07
_cell_formula_units_Z 2
_space_group_name_H-M_alt 'C m m m'
_space_group_IT_number 65
loop_
_space_group_symop_id
_space_group_symop_operation_xyz
1 'x, -y, z'
2 '-x, y, z'
3 'x, y, -z'
4 '-x, -y, -z'
5 '-x, y, -z'
6 'x, -y, -z'
7 '-x, -y, z'
8 'x, y, z'
9 'x+1/2, -y+1/2, z'
10 '-x+1/2, y+1/2, z'
11 'x+1/2, y+1/2, -z'
12 '-x+1/2, -y+1/2, -z'
13 '-x+1/2, y+1/2, -z'
14 'x+1/2, -y+1/2, -z'
15 '-x+1/2, -y+1/2, z'
16 'x+1/2, y+1/2, z'
loop_
_atom_type_symbol
_atom_type_oxidation_number
Sr2+ 2
Cu2+ 2
O2- -2
loop_
_atom_site_label
_atom_site_type_symbol
_atom_site_symmetry_multiplicity
_atom_site_Wyckoff_symbol
_atom_site_fract_x
_atom_site_fract_y
_atom_site_fract_z
_atom_site_U_iso_or_equiv
_atom_site_occupancy
Sr1 Sr2+ 2 d 0.5 0.5 0.5 0.0054(5) 1
Cu1 Cu2+ 4 i 0 0.33427(14) 0 0.0075(5) 1
O1 O2- 2 b 0 0.5 0 0.009(3) 1
O2 O2- 4 i 0 0.1705(8) 0 0.0079(19) 1
loop_
_atom_site_aniso_label
_atom_site_aniso_type_symbol
_atom_site_aniso_U_11
_atom_site_aniso_U_22
_atom_site_aniso_U_33
_atom_site_aniso_U_12
_atom_site_aniso_U_13
_atom_site_aniso_U_23
Cu1 Cu2+ 0.0013(7) 0.0017(8) 0.0195(9) 0 0 0
#End of TTdata_416902-ICSD