
#(C) 2023 by FIZ Karlsruhe - Leibniz Institute for Information Infrastructure.  All rights reserved.
data_202722-ICSD
_database_code_ICSD 202722
_audit_creation_date 1989-12-04
_audit_update_record 2011-02-01
_chemical_name_common 'Dithallium(III) dibarium copper oxide'
_chemical_formula_structural 'Tl2 Ba2 Cu O6'
_chemical_formula_sum 'Ba2 Cu1 O6 Tl2'
_chemical_name_structure_type Tl2Ba2CuO6
_exptl_crystal_density_diffrn 8.02
_diffrn_ambient_temperature 293.
_citation_title 'Superconducting Tl2 Ba2 Cu O6: The orthorhombic form'
loop_
_citation_id
_citation_journal_full
_citation_year
_citation_journal_volume
_citation_page_first
_citation_page_last
_citation_journal_id_ASTM
primary 'Journal of Solid State Chemistry' 1988 76 432 436 JSSCBI
loop_
_citation_author_citation_id
_citation_author_name
primary 'Parise, J.B.'
primary 'Gopalakrishnan, J.'
primary 'Subramanian, M.A.'
primary 'Sleight, A.W.'
_cell_length_a 5.4967(3)
_cell_length_b 5.4651(3)
_cell_length_c 23.2460(10)
_cell_angle_alpha 90.
_cell_angle_beta 90.
_cell_angle_gamma 90.
_cell_volume 698.31
_cell_formula_units_Z 4
_space_group_name_H-M_alt 'A b m a'
_space_group_IT_number 64
loop_
_space_group_symop_id
_space_group_symop_operation_xyz
1 'x+1/2, -y, -z+1/2'
2 '-x+1/2, -y, z+1/2'
3 'x, -y, z'
4 '-x, -y, -z'
5 '-x+1/2, y, z+1/2'
6 'x+1/2, y, -z+1/2'
7 '-x, y, -z'
8 'x, y, z'
9 'x+1/2, -y+1/2, -z'
10 '-x+1/2, -y+1/2, z'
11 'x, -y+1/2, z+1/2'
12 '-x, -y+1/2, -z+1/2'
13 '-x+1/2, y+1/2, z'
14 'x+1/2, y+1/2, -z'
15 '-x, y+1/2, -z+1/2'
16 'x, y+1/2, z+1/2'
loop_
_atom_type_symbol
_atom_type_oxidation_number
Tl3+ 3
Ba2+ 2
Cu2+ 2
O2- -2
loop_
_atom_site_label
_atom_site_type_symbol
_atom_site_symmetry_multiplicity
_atom_site_Wyckoff_symbol
_atom_site_fract_x
_atom_site_fract_y
_atom_site_fract_z
_atom_site_B_iso_or_equiv
_atom_site_occupancy
Tl1 Tl3+ 8 f 0 0 0.2018(1) . 1.
Ba1 Ba2+ 8 f 0 0.5 0.0822(2) 0.9(1) 1.
Cu1 Cu2+ 4 a 0 0 0 0.6(1) 1.
O1 O2- 8 e 0.75 0.25 0 0.2(1) 1.
O2 O2- 8 f 0 0 0.1161(2) 1.1(1) 1.
O3 O2- 8 f 0.045(3) 0 0.2887(3) . 1.
loop_
_atom_site_aniso_label
_atom_site_aniso_type_symbol
_atom_site_aniso_B_11
_atom_site_aniso_B_22
_atom_site_aniso_B_33
_atom_site_aniso_B_12
_atom_site_aniso_B_13
_atom_site_aniso_B_23
Tl1 Tl3+ 3.1(2) 1.0(2) 0.2 0 0 0
O3 O2- 12.1(1) 6.0(5) 0.2 0 0 0
#End of TTdata_202722-ICSD