
#(C) 2023 by FIZ Karlsruhe - Leibniz Institute for Information Infrastructure.  All rights reserved.
data_78593-ICSD
_database_code_ICSD 78593
_audit_creation_date 1997-05-13
_chemical_name_common 'Dithallium dibarium calcium dicopper oxide'
_chemical_formula_structural 'Tl2 Ba2 Ca Cu2 O8'
_chemical_formula_sum 'Ba2 Ca1 Cu2 O8 Tl2'
_exptl_crystal_density_diffrn 7.5
_diffrn_ambient_temperature 120.
_citation_title

;
Superconducting transition in Tl2 Ba2 Ca Cu2 O8 observed by electron-density
distribution
;
loop_
_citation_id
_citation_journal_full
_citation_year
_citation_journal_volume
_citation_page_first
_citation_page_last
_citation_journal_id_ASTM
primary
'Physica C: Superconductivity and Ist Application (Amsterdam, Netherlands)' 1995 247 289 296 PHYCE6
loop_
_citation_author_citation_id
_citation_author_name
primary 'Sasaki, S.'
primary 'Mori, T.'
primary 'Kawaguchi, K.'
primary 'Nakao, M.'
_cell_length_a 3.838(1)
_cell_length_b 3.838(1)
_cell_length_c 29.42(1)
_cell_angle_alpha 90.
_cell_angle_beta 90.
_cell_angle_gamma 90.
_cell_volume 433.36
_cell_formula_units_Z 2
_space_group_name_H-M_alt 'I 4/m m m'
_space_group_IT_number 139
loop_
_space_group_symop_id
_space_group_symop_operation_xyz
1 'y, x, -z'
2 '-y, -x, -z'
3 '-y, x, -z'
4 'y, -x, -z'
5 '-x, y, -z'
6 'x, -y, -z'
7 'x, y, -z'
8 '-x, -y, -z'
9 '-y, -x, z'
10 'y, x, z'
11 'y, -x, z'
12 '-y, x, z'
13 'x, -y, z'
14 '-x, y, z'
15 '-x, -y, z'
16 'x, y, z'
17 'y+1/2, x+1/2, -z+1/2'
18 '-y+1/2, -x+1/2, -z+1/2'
19 '-y+1/2, x+1/2, -z+1/2'
20 'y+1/2, -x+1/2, -z+1/2'
21 '-x+1/2, y+1/2, -z+1/2'
22 'x+1/2, -y+1/2, -z+1/2'
23 'x+1/2, y+1/2, -z+1/2'
24 '-x+1/2, -y+1/2, -z+1/2'
25 '-y+1/2, -x+1/2, z+1/2'
26 'y+1/2, x+1/2, z+1/2'
27 'y+1/2, -x+1/2, z+1/2'
28 '-y+1/2, x+1/2, z+1/2'
29 'x+1/2, -y+1/2, z+1/2'
30 '-x+1/2, y+1/2, z+1/2'
31 '-x+1/2, -y+1/2, z+1/2'
32 'x+1/2, y+1/2, z+1/2'
loop_
_atom_type_symbol
_atom_type_oxidation_number
Tl3+ 3
Ba2+ 2
Ca2+ 2
Cu2+ 2
O2- -2
loop_
_atom_site_label
_atom_site_type_symbol
_atom_site_symmetry_multiplicity
_atom_site_Wyckoff_symbol
_atom_site_fract_x
_atom_site_fract_y
_atom_site_fract_z
_atom_site_B_iso_or_equiv
_atom_site_occupancy
Tl1 Tl3+ 4 e 0.5 0.5 0.21326(1) . 1.
Ba1 Ba2+ 4 e 0 0 0.12065(1) . 1.
Ca1 Ca2+ 2 a 0 0 0 . 1.
Cu1 Cu2+ 4 e 0.5 0.5 0.05337(1) . 1.
O1 O2- 8 g 0 0.5 0.05233(4) . 1.
O2 O2- 4 e 0.5 0.5 0.14505(7) . 1.
O3 O2- 4 e 0.5 0.5 0.2817(1) . 1.
loop_
_atom_site_aniso_label
_atom_site_aniso_type_symbol
_atom_site_aniso_U_11
_atom_site_aniso_U_22
_atom_site_aniso_U_33
_atom_site_aniso_U_12
_atom_site_aniso_U_13
_atom_site_aniso_U_23
Tl1 Tl3+ 0.0156(1) 0.0156(1) 0.0040(1) 0 0 0
Ba1 Ba2+ 0.00332(8) 0.00332(8) 0.0068(1) 0 0 0
Ca1 Ca2+ 0.00211(7) 0.00211(7) 0.0069(2) 0 0 0
Cu1 Cu2+ 0.00165(6) 0.00165(6) 0.0057(1) 0 0 0
O1 O2- 0.0023(3) 0.0048(3) 0.0085(4) 0 0 0
O2 O2- 0.0090(4) 0.0090(4) 0.0082(6) 0 0 0
O3 O2- 0.112(4) 0.112(4) 0.005(1) 0 0 0
#End of TTdata_78593-ICSD