
#(C) 2023 by FIZ Karlsruhe - Leibniz Institute for Information Infrastructure.  All rights reserved.
data_68584-ICSD
_database_code_ICSD 68584
_audit_creation_date 1991-07-10
_audit_update_record 2008-08-01
_chemical_name_common 'Dithallium(III) dibarium dicalcium tricopper oxide'
_chemical_formula_structural 'Tl2 Ba2 Ca2 Cu3 O10'
_chemical_formula_sum 'Ba2 Ca2 Cu3 O10 Tl2'
_chemical_name_structure_type Tl2Ba2Ca2Cu3O10
_exptl_crystal_density_diffrn 6.98
_citation_title

;
A series of crystal structures of superconducting phases in Tl-Ba-Ca-Cu-O
system
;
loop_
_citation_id
_citation_journal_full
_citation_year
_citation_journal_volume
_citation_page_first
_citation_page_last
_citation_journal_id_ASTM
primary

;
Science in China, Series A: Mathematics, Physics, Astronomy & Technological
Sciences
; 1989 32 826 835 SCASEY
loop_
_citation_author_citation_id
_citation_author_name
primary 'Liang, J.-K.'
primary 'Zhang, Y.-L.'
primary 'Huang, J.-Q.'
primary 'Xie, S.-S.'
primary 'Che, G.-C.'
primary 'Cheng Xiangrong'
_cell_length_a 3.847
_cell_length_b 3.847
_cell_length_c 35.82
_cell_angle_alpha 90.
_cell_angle_beta 90.
_cell_angle_gamma 90.
_cell_volume 530.11
_cell_formula_units_Z 2
_space_group_name_H-M_alt 'I 4/m m m'
_space_group_IT_number 139
loop_
_space_group_symop_id
_space_group_symop_operation_xyz
1 'y, x, -z'
2 '-y, -x, -z'
3 '-y, x, -z'
4 'y, -x, -z'
5 '-x, y, -z'
6 'x, -y, -z'
7 'x, y, -z'
8 '-x, -y, -z'
9 '-y, -x, z'
10 'y, x, z'
11 'y, -x, z'
12 '-y, x, z'
13 'x, -y, z'
14 '-x, y, z'
15 '-x, -y, z'
16 'x, y, z'
17 'y+1/2, x+1/2, -z+1/2'
18 '-y+1/2, -x+1/2, -z+1/2'
19 '-y+1/2, x+1/2, -z+1/2'
20 'y+1/2, -x+1/2, -z+1/2'
21 '-x+1/2, y+1/2, -z+1/2'
22 'x+1/2, -y+1/2, -z+1/2'
23 'x+1/2, y+1/2, -z+1/2'
24 '-x+1/2, -y+1/2, -z+1/2'
25 '-y+1/2, -x+1/2, z+1/2'
26 'y+1/2, x+1/2, z+1/2'
27 'y+1/2, -x+1/2, z+1/2'
28 '-y+1/2, x+1/2, z+1/2'
29 'x+1/2, -y+1/2, z+1/2'
30 '-x+1/2, y+1/2, z+1/2'
31 '-x+1/2, -y+1/2, z+1/2'
32 'x+1/2, y+1/2, z+1/2'
loop_
_atom_type_symbol
_atom_type_oxidation_number
Ca2+ 2
Ba2+ 2
Tl3+ 3
Cu2+ 2
O2- -2
loop_
_atom_site_label
_atom_site_type_symbol
_atom_site_symmetry_multiplicity
_atom_site_Wyckoff_symbol
_atom_site_fract_x
_atom_site_fract_y
_atom_site_fract_z
_atom_site_B_iso_or_equiv
_atom_site_occupancy
Ca1 Ca2+ 4 e 0.5 0.5 0.045 . 1.
Ba1 Ba2+ 4 e 0 0 0.145 . 1.
Tl1 Tl3+ 4 e 0 0 0.277 . 1.
Cu1 Cu2+ 2 b 0.5 0.5 0 . 1.
Cu2 Cu2+ 4 e 0 0 0.41 . 1.
O1 O2- 4 c 0 0.5 0 . 1.
O2 O2- 8 g 0 0.5 0.087 . 1.
O3 O2- 4 e 0 0 0.35 . 1.
O4 O2- 4 e 0 0 0.215 . 1.
#End of TTdata_68584-ICSD